 VARIABLES = X Y Z
 ZONE N = 1047, E = 1946, DATAPACKING= POINT, ZONETYPE= FETRIANGLE
0  7.5  18
0  -7.5  18
160  0  18
2.8983  -8.11303  18
5.68187  -8.66281  18
8.4302  -9.16632  18
11.1145  -9.61871  18
13.7438  -10.0226  18
16.3285  -10.3806  18
18.8813  -10.6954  18
21.4185  -10.9696  18
23.9619  -11.2062  18
26.5434  -11.4084  18
29.2147  -11.5802  18
32.0734  -11.7276  18
35.3626  -11.863  18
40.3515  -12.0306  18
45.3881  -12.1601  18
49.9891  -12.2496  18
57.0501  -12.3514  18
65.1811  -12.4294  18
72.755  -12.4679  18
80.0429  -12.4719  18
87.0788  -12.4416  18
93.2273  -12.3806  18
98.574  -12.2961  18
103.738  -12.1815  18
108.518  -12.0418  18
113.009  -11.8772  18
117.251  -11.6886  18
121.19  -11.4805  18
124.76  -11.2591  18
127.932  -11.0296  18
130.323  -10.827  18
132.343  -10.622  18
134.068  -10.4124  18
135.636  -10.1882  18
137.109  -9.94364  18
138.526  -9.67456  18
139.915  -9.37713  18
141.295  -9.04776  18
142.867  -8.63357  18
144.5  -8.16215  18
146.167  -7.63943  18
147.838  -7.07416  18
149.316  -6.53841  18
150.742  -5.98709  18
152.094  -5.4302  18
153.35  -4.87752  18
154.498  -4.33795  18
155.526  -3.81899  18
156.43  -3.32649  18
157.212  -2.86461  18
157.874  -2.43588  18
158.403  -2.0579  18
158.781  -1.75834  18
159.061  -1.51388  18
159.263  -1.31966  18
159.425  -1.14799  18
159.542  -1.01126  18
159.64  -0.886596  18
159.718  -0.776057  18
159.78  -0.677968  18
159.83  -0.590854  18
159.869  -0.513422  18
159.9  -0.444539  18
159.925  -0.38321  18
159.946  -0.322526  18
159.964  -0.262496  18
159.977  -0.209041  18
159.986  -0.1614  18
159.993  -0.11421  18
159.997  -0.0674781  18
159.999  -0.0336139  18
160  0  18
2.8983  8.11303  18
5.68187  8.66281  18
8.4302  9.16632  18
11.1145  9.61871  18
13.7438  10.0226  18
16.3285  10.3806  18
18.8813  10.6954  18
21.4185  10.9696  18
23.9619  11.2062  18
26.5434  11.4084  18
29.2147  11.5802  18
32.0734  11.7276  18
35.3626  11.863  18
40.3515  12.0306  18
45.3881  12.1601  18
49.9891  12.2496  18
57.0501  12.3514  18
65.1811  12.4294  18
72.755  12.4679  18
80.0429  12.4719  18
87.0788  12.4416  18
93.2273  12.3806  18
98.574  12.2961  18
103.738  12.1815  18
108.518  12.0418  18
113.009  11.8772  18
117.251  11.6886  18
121.19  11.4805  18
124.76  11.2591  18
127.932  11.0296  18
130.323  10.827  18
132.343  10.622  18
134.068  10.4124  18
135.636  10.1882  18
137.109  9.94364  18
138.526  9.67456  18
139.915  9.37713  18
141.295  9.04776  18
142.867  8.63357  18
144.5  8.16215  18
146.167  7.63943  18
147.838  7.07416  18
149.316  6.53841  18
150.742  5.98709  18
152.094  5.4302  18
153.35  4.87752  18
154.498  4.33795  18
155.526  3.81899  18
156.43  3.32649  18
157.212  2.86461  18
157.874  2.43588  18
158.403  2.0579  18
158.781  1.75834  18
159.061  1.51388  18
159.263  1.31966  18
159.425  1.14799  18
159.542  1.01126  18
159.64  0.886596  18
159.718  0.776057  18
159.78  0.677968  18
159.83  0.590854  18
159.869  0.513422  18
159.9  0.444539  18
159.925  0.38321  18
159.946  0.322526  18
159.964  0.262496  18
159.977  0.209041  18
159.986  0.1614  18
159.993  0.11421  18
159.997  0.0674781  18
159.999  0.0336139  18
1.46379  0  18
4.30412  0  18
7.07023  0  18
9.78638  0  18
12.4431  0  18
15.05  0  18
17.6187  0  18
20.1639  0  18
22.7044  0  18
25.2674  0  18
27.8946  0  18
30.6614  0  18
33.7395  0  18
37.8834  0  18
47.6401  0  18
53.4465  0  18
61.092  0  18
101.156  0  18
106.128  0  18
110.763  0  18
115.136  0  18
137.816  0  18
139.218  0  18
140.602  0  18
142.079  0  18
143.682  0  18
145.335  0  18
147.006  0  18
148.581  0  18
150.035  0  18
151.425  0  18
152.731  0  18
153.933  0  18
155.022  0  18
155.988  0  18
156.831  0  18
157.552  0  18
158.146  0  18
0.735596  3.8297  18
2.18467  3.98292  18
3.60476  4.12813  18
4.99646  4.26554  18
6.37964  4.39721  18
7.75372  4.52306  18
9.11184  4.64248  18
10.4539  4.75554  18
0.735596  -3.8297  18
11.7823  4.86251  18
2.18467  -3.98292  18
3.60476  -4.12813  18
4.99646  -4.26554  18
6.37964  -4.39721  18
7.75372  -4.52306  18
9.11184  -4.64248  18
10.4539  -4.75554  18
11.7823  -4.86251  18
36.6325  5.95466  18
36.6325  -5.95466  18
43.9304  6.06323  18
48.8012  6.11431  18
43.9304  -6.06323  18
51.6963  6.13883  18
55.2332  6.16429  18
48.8012  -6.11431  18
51.6963  -6.13883  18
55.2332  -6.16429  18
97.1917  6.16052  18
97.1917  -6.16052  18
118.192  5.82097  18
118.192  -5.82097  18
135.084  5.13552  18
135.94  5.07022  18
136.723  5.00546  18
135.084  -5.13552  18
135.94  -5.07022  18
136.723  -5.00546  18
158.479  1.00005  18
158.638  0.937498  18
158.762  0.887247  18
158.868  0.842349  18
158.951  0.806218  18
159.026  0.772959  18
159.091  0.74319  18
159.147  0.716534  18
159.197  0.692656  18
159.24  0.671259  18
159.278  0.652078  18
159.312  0.634878  18
159.344  0.617738  18
159.376  0.600659  18
159.404  0.58534  18
158.479  -1.00005  18
158.638  -0.937498  18
158.762  -0.887247  18
158.868  -0.842349  18
158.951  -0.806218  18
159.026  -0.772959  18
159.091  -0.74319  18
159.147  -0.716534  18
159.197  -0.692656  18
159.24  -0.671259  18
159.278  -0.652078  18
159.312  -0.634878  18
159.344  -0.617738  18
159.376  -0.600659  18
159.404  -0.58534  18
1.10062  5.80315  18
3.95532  6.2448  18
6.72583  6.64408  18
2.54238  2.00998  18
9.44999  7.00715  18
5.34979  2.14982  18
2.54238  -2.00998  18
8.09897  2.27694  18
12.7708  7.40831  18
14.0977  7.55545  18
5.34979  -2.14982  18
10.7922  2.39162  18
1.10062  -5.80315  18
8.09897  -2.27694  18
3.95532  -6.2448  18
13.4379  2.49441  18
10.7922  -2.39162  18
6.72583  -6.64408  18
13.4379  -2.49441  18
9.44999  -7.00715  18
12.7708  -7.40831  18
14.0977  -7.55545  18
34.393  8.86937  18
35.2015  2.96423  18
38.5035  8.97981  18
35.2015  -2.96423  18
34.393  -8.86937  18
40.9032  3.01166  18
40.9032  -3.01166  18
47.0691  9.14663  18
38.5035  -8.97981  18
45.76  3.04206  18
45.76  -3.04206  18
49.6312  3.06086  18
54.3357  9.23738  18
49.6312  -3.06086  18
47.0691  -9.14663  18
58.1373  3.09102  18
54.3357  -9.23738  18
58.1373  -3.09102  18
100.465  9.19363  18
100.465  -9.19363  18
132.728  7.93369  18
133.719  7.84336  18
132.728  2.64456  18
137.622  7.38756  18
138.309  7.28856  18
136.447  2.51442  18
136.876  2.49614  18
137.965  2.44629  18
132.728  -7.93369  18
136.447  -2.51442  18
133.719  -7.84336  18
136.876  -2.49614  18
137.965  -2.44629  18
137.622  -7.38756  18
138.309  -7.28856  18
157.546  1.99009  18
157.886  1.82062  18
158.187  1.66243  18
157.719  0.635042  18
158.039  0.580432  18
159.529  0.770592  18
158.401  0.514826  18
159.575  0.728258  18
158.468  0.502076  18
158.527  0.490639  18
159.614  0.690404  18
158.574  0.481401  18
159.648  0.656537  18
158.618  0.472869  18
159.677  0.626224  18
158.656  0.465208  18
158.69  0.458328  18
159.702  0.599078  18
158.72  0.452148  18
159.724  0.574758  18
158.747  0.446595  18
158.771  0.441606  18
159.745  0.550546  18
158.793  0.437122  18
158.814  0.432645  18
159.766  0.526442  18
158.835  0.428174  18
158.854  0.424155  18
159.783  0.504842  18
159.798  0.485478  18
159.813  0.466187  18
159.827  0.44697  18
159.837  0.432971  18
159.847  0.419011  18
157.719  -0.635042  18
158.039  -0.580432  18
158.401  -0.514826  18
158.468  -0.502076  18
158.527  -0.490639  18
158.574  -0.481401  18
158.618  -0.472869  18
158.656  -0.465208  18
158.69  -0.458328  18
158.72  -0.452148  18
158.747  -0.446595  18
158.771  -0.441606  18
158.793  -0.437122  18
158.814  -0.432645  18
158.835  -0.428174  18
158.854  -0.424155  18
159.847  0.13967  18
157.546  -1.99009  18
157.886  -1.82062  18
158.187  -1.66243  18
159.529  -0.770592  18
159.575  -0.728258  18
159.614  -0.690404  18
159.648  -0.656537  18
159.677  -0.626224  18
159.702  -0.599078  18
159.724  -0.574758  18
159.745  -0.550546  18
159.766  -0.526442  18
159.783  -0.504842  18
159.798  -0.485478  18
159.813  -0.466187  18
159.827  -0.44697  18
159.837  -0.432971  18
159.847  -0.419011  18
0.552394  6.66744  18
2.00513  6.93737  18
4.82403  7.43537  18
3.07558  5.09325  18
1.6447  2.94481  18
7.58351  7.88854  18
5.86668  5.4362  18
4.4828  3.16155  18
10.2877  8.29816  18
3.42881  1.0276  18
8.60738  5.74838  18
7.24488  3.35778  18
11.9481  8.53215  18
10.6268  5.96218  18
3.42881  -1.0276  18
6.21551  1.09546  18
1.6447  -2.94481  18
9.95753  3.53573  18
12.9509  6.1906  18
15.2234  8.9533  18
6.21551  -1.09546  18
8.94816  1.15709  18
4.4828  -3.16155  18
16.5376  9.10687  18
12.6156  3.6953  18
3.07558  -5.09325  18
0.552394  -6.66744  18
8.94816  -1.15709  18
11.6231  1.21249  18
2.00513  -6.93737  18
7.24488  -3.35778  18
5.86668  -5.4362  18
15.8841  3.8707  18
11.6231  -1.21249  18
4.82403  -7.43537  18
14.2492  1.26196  18
9.95753  -3.53573  18
8.60738  -5.74838  18
15.5647  1.28486  18
14.2492  -1.26196  18
7.58351  -7.88854  18
12.6156  -3.6953  18
10.6268  -5.96218  18
15.5647  -1.28486  18
10.2877  -8.29816  18
12.9509  -6.1906  18
15.8841  -3.8707  18
11.9481  -8.53215  18
15.2234  -8.9533  18
16.5376  -9.10687  18
33.244  10.3067  18
32.5557  4.40601  18
36.9468  10.4304  18
35.5219  7.41807  18
32.5557  -4.40601  18
36.5534  1.48831  18
38.7811  4.49328  18
36.5534  -1.48831  18
33.244  -10.3067  18
35.5219  -7.41807  18
38.7811  -4.49328  18
36.9468  -10.4304  18
48.5084  10.6953  18
47.2598  4.57474  18
52.1301  10.7488  18
47.2598  -4.57474  18
51.5121  1.53434  18
51.5121  -1.53434  18
48.5084  -10.6953  18
55.7682  1.54194  18
55.7682  -1.54194  18
52.1301  -10.7488  18
103.297  4.57226  18
103.297  -4.57226  18
134.678  9.0381  18
133.91  3.91246  18
136.78  6.25078  18
137.514  6.16883  18
139.108  8.35976  18
134.593  0  18
133.91  -1.30415  18
139.788  8.22998  18
139.448  3.55538  18
139.274  1.18983  18
134.678  -9.0381  18
139.274  -1.18983  18
136.78  -6.25078  18
137.514  -6.16883  18
139.448  -3.55538  18
139.108  -8.35976  18
139.788  -8.22998  18
156.596  2.82756  18
157.009  2.61452  18
158.497  1.73746  18
156.806  1.16607  18
158.036  1.45238  18
156.903  0.381476  18
158.115  0.850513  18
157.29  0.35199  18
158.265  0.810043  18
156.903  -0.381476  18
159.298  0.802049  18
159.326  0.783877  18
159.351  0.767569  18
159.373  0.752929  18
157.29  -0.35199  18
159.393  0.739785  18
159.41  0.72798  18
159.515  0.652939  18
159.032  0.577464  18
159.534  0.638594  18
158.39  0.258456  18
159.056  0.569316  18
158.41  0.256516  18
159.551  0.625716  18
158.429  0.254772  18
159.077  0.561997  18
159.566  0.614153  18
158.445  0.253204  18
159.096  0.55542  18
158.46  0.251794  18
159.579  0.603769  18
158.473  0.250525  18
159.115  0.548854  18
158.485  0.249385  18
159.889  0.411527  18
159.592  0.593405  18
158.497  0.248244  18
156.806  -1.16607  18
159.133  0.542299  18
158.509  0.247105  18
159.605  0.583062  18
158.519  0.24608  18
159.15  0.536408  18
159.616  0.573772  18
159.903  0.384511  18
159.915  0.357633  18
159.926  0.333562  18
159.935  0.311996  18
159.943  0.290523  18
159.951  0.269144  18
159.956  0.253577  18
159.961  0.238061  18
158.39  -0.258456  18
158.41  -0.256516  18
158.429  -0.254772  18
158.445  -0.253204  18
158.46  -0.251794  18
158.473  -0.250525  18
158.485  -0.249385  18
158.497  -0.248244  18
158.509  -0.247105  18
158.519  -0.24608  18
159.459  0.277368  18
159.961  0.170044  18
158.115  -0.850513  18
158.265  -0.810043  18
156.596  -2.82756  18
159.459  0  18
157.009  -2.61452  18
158.036  -1.45238  18
159.032  -0.577464  18
159.056  -0.569316  18
159.077  -0.561997  18
159.096  -0.55542  18
159.115  -0.548854  18
159.133  -0.542299  18
159.15  -0.536408  18
159.66  -0.107328  18
158.497  -1.73746  18
159.298  -0.802049  18
159.326  -0.783877  18
159.351  -0.767569  18
159.373  -0.752929  18
159.393  -0.739785  18
159.41  -0.72798  18
159.515  -0.652939  18
159.534  -0.638594  18
159.551  -0.625716  18
159.566  -0.614153  18
159.579  -0.603769  18
159.592  -0.593405  18
159.605  -0.583062  18
159.616  -0.573772  18
159.626  -0.565425  18
159.636  -0.557093  18
159.646  -0.548774  18
159.653  -0.542703  18
159.66  -0.536639  18
159.961  -0.102026  18
159.889  -0.411527  18
159.903  -0.384511  18
159.915  -0.357633  18
159.926  -0.333562  18
159.935  -0.311996  18
159.943  -0.290523  18
159.951  -0.269144  18
159.956  -0.253577  18
159.961  -0.238061  18
1.00953  7.23572  18
3.86784  7.78964  18
2.987  6.60655  18
2.09496  5.46368  18
6.63945  8.2901  18
5.78161  7.05395  18
4.91767  5.8546  18
2.63153  3.52551  18
4.04268  4.69338  18
9.36562  8.74544  18
3.51934  2.57471  18
8.52342  7.46094  18
7.67331  6.20926  18
5.43784  3.76958  18
6.81687  4.99252  18
2.45312  0.501344  18
4.39599  1.57757  18
2.45312  -0.501344  18
6.30402  2.74384  18
8.18501  3.99133  18
5.26652  0.536455  18
11.708  6.67791  18
7.16392  1.67612  18
5.26652  -0.536455  18
9.03491  2.8974  18
4.39599  -1.57757  18
3.51934  -2.57471  18
10.8765  4.19134  18
2.63153  -3.52551  18
8.01591  0.568312  18
15.33  8.32566  18
9.87681  1.76532  18
8.01591  -0.568312  18
11.7105  3.03554  18
2.09496  -5.46368  18
7.16392  -1.67612  18
6.30402  -2.74384  18
4.04268  -4.69338  18
5.43784  -3.76958  18
14.4352  5.0611  18
14.9975  5.73815  18
10.7114  0.597082  18
1.00953  -7.23572  18
12.5371  1.8454  18
2.987  -6.60655  18
10.7114  -0.597082  18
4.91767  -5.8546  18
17.4018  7.2309  18
9.87681  -1.76532  18
9.03491  -2.8974  18
14.6733  3.17371  18
6.81687  -4.99252  18
8.18501  -3.99133  18
3.86784  -7.78964  18
13.3528  0.622815  18
15.0722  2.55287  18
5.78161  -7.05395  18
13.3528  -0.622815  18
7.67331  -6.20926  18
12.5371  -1.8454  18
11.7105  -3.03554  18
10.8765  -4.19134  18
16.7578  1.9568  18
6.63945  -8.2901  18
8.52342  -7.46094  18
16.6006  0.651  18
18.063  1.98726  18
16.6006  -0.651  18
15.0722  -2.55287  18
14.6733  -3.17371  18
9.36562  -8.74544  18
11.708  -6.67791  18
16.7578  -1.9568  18
14.4352  -5.0611  18
18.063  -1.98726  18
14.9975  -5.73815  18
15.33  -8.32566  18
17.4018  -7.2309  18
30.9088  8.02423  18
30.2715  2.18225  18
31.616  2.19492  18
34.0561  5.90623  18
30.2715  -2.18225  18
33.8924  3.68934  18
31.616  -2.19492  18
30.9088  -8.02423  18
33.8924  -3.68934  18
34.0561  -5.90623  18
105.907  8.33413  18
105.907  -8.33413  18
139.046  7.77343  18
135.52  1.27574  18
140.538  8.65561  18
138.477  4.84226  18
135.52  -1.27574  18
135.179  -1.9232  18
140.366  6.37538  18
138.704  3.01201  18
141.141  6.24688  18
140.752  1.72151  18
138.704  -3.01201  18
138.477  -4.84226  18
140.752  -1.72151  18
139.046  -7.77343  18
140.366  -6.37538  18
141.141  -6.24688  18
140.538  -8.65561  18
155.712  2.55813  18
156.187  2.38075  18
157.186  1.62029  18
155.952  0.673455  18
158.794  1.63838  18
157.452  1.35669  18
156.406  0.626285  18
156.457  0.206945  18
156.457  -0.206945  18
155.952  -0.673455  18
156.406  -0.626285  18
159.095  0.833715  18
159.723  0.528214  18
159.732  0.519211  18
155.712  -2.55813  18
159.99  0.125757  18
156.187  -2.38075  18
159.832  0.366942  18
159.99  0.10899  18
159.042  0.0956814  18
159.183  0.174869  18
157.186  -1.62029  18
157.452  -1.35669  18
159.042  -0.0956814  18
159.913  0.180965  18
159.183  -0.174869  18
159.681  0.103636  18
159.99  0.0419192  18
159.432  -0.285006  18
159.095  -0.833715  18
159.913  -0.0258521  18
159.847  -0.13967  18
159.541  -0.569932  18
158.794  -1.63838  18
159.762  -0.30934  18
159.756  -0.49264  18
159.762  -0.486105  18
159.91  -0.343458  18
159.913  -0.336078  18
159.99  -0.0922222  18
159.99  -0.125757  18
1.4185  4.63426  18
11.0018  7.50041  18
1.4185  -4.63426  18
16.3749  7.79001  18
16.2118  6.47831  18
16.6478  5.53674  18
19.4449  9.07843  18
16.9836  2.94331  18
19.7651  6.40969  18
11.0018  -7.50041  18
19.1229  1.0053  18
16.9836  -2.94331  18
19.1229  -1.0053  18
16.6478  -5.53674  18
16.2118  -6.47831  18
16.3749  -7.79001  18
28.7675  9.74862  18
19.7651  -6.40969  18
28.4377  6.84826  18
19.4449  -9.07843  18
29.0953  1.085  18
31.4245  3.28979  18
29.0953  -1.085  18
28.4377  -6.84826  18
31.4245  -3.28979  18
28.7675  -9.74862  18
108.335  4.14143  18
108.335  -4.14143  18
139.416  5.63343  18
136.666  0.626302  18
142.001  7.48143  18
136.666  -0.626302  18
140.289  4.93593  18
142.812  7.29725  18
142.406  3.01098  18
141.413  0.845453  18
142.209  0.826108  18
141.413  -0.845453  18
142.209  -0.826108  18
139.416  -5.63343  18
140.289  -4.93593  18
142.406  -3.01098  18
142.001  -7.48143  18
142.812  -7.29725  18
154.577  3.6274  18
155.119  3.39955  18
156.164  2.71529  18
156.608  2.51928  18
154.851  1.4314  18
156.275  1.81377  18
154.98  0.384298  18
155.496  0.359499  18
156.389  0.942168  18
154.98  -0.384298  18
157.752  1.41619  18
155.496  -0.359499  18
154.851  -1.4314  18
156.389  -0.942168  18
154.577  -3.6274  18
156.275  -1.81377  18
155.119  -3.39955  18
159.94  0.267505  18
159.713  0.366776  18
156.164  -2.71529  18
158.794  -0.054622  18
156.608  -2.51928  18
157.752  -1.41619  18
159.94  0.0963019  18
159.961  0.0340087  18
159.614  -0.316464  18
159.913  -0.129261  18
159.913  -0.232669  18
159.978  -0.107653  18
159.913  -0.284373  18
159.94  -0.246105  18
18.0093  9.10269  18
18.4323  8.14841  18
18.5954  6.83038  18
20.5978  8.67407  18
18.3909  4.65409  18
21.9021  8.77959  18
18.9203  4.17964  18
21.2536  3.25166  18
26.2439  9.07388  18
27.6663  10.5878  18
27.4984  9.14333  18
18.3909  -4.65409  18
18.9203  -4.17964  18
21.2536  -3.25166  18
18.5954  -6.83038  18
18.4323  -8.14841  18
29.848  8.89339  18
18.0093  -9.10269  18
26.8747  3.39378  18
20.5978  -8.67407  18
29.3619  4.52682  18
21.9021  -8.77959  18
26.8747  -3.39378  18
26.2439  -9.07388  18
29.3619  -4.52682  18
27.4984  -9.14333  18
27.6663  -10.5878  18
29.848  -8.89339  18
110.672  8.0404  18
110.672  -8.0404  18
141.973  6.79413  18
143.655  7.75393  18
141.771  4.60276  18
141.341  3.95335  18
143.451  5.6905  18
141.576  2.38449  18
144.286  5.52686  18
143.043  1.47548  18
143.869  1.43501  18
141.576  -2.38449  18
141.341  -3.95335  18
143.043  -1.47548  18
143.869  -1.43501  18
141.771  -4.60276  18
141.973  -6.79413  18
143.451  -5.6905  18
144.286  -5.52686  18
143.655  -7.75393  18
153.521  3.22468  18
154.117  3.03763  18
155.288  2.03273  18
153.822  0.801007  18
155.584  1.65733  18
154.399  0.753857  18
155.414  1.02995  18
153.822  -0.801007  18
154.399  -0.753857  18
155.414  -1.02995  18
153.521  -3.22468  18
154.117  -3.03763  18
155.584  -1.65733  18
155.288  -2.03273  18
159.596  0.339365  18
159.847  -0.279341  18
159.961  -0.170044  18
17.1749  9.75174  18
20.8435  7.58644  18
22.9413  9.98687  18
20.0987  3.72342  18
24.1145  8.9403  18
25.1144  10.1533  18
20.1981  2.11768  18
23.8036  6.12094  18
20.1981  -2.11768  18
23.2959  1.65477  18
27.3514  7.9712  18
20.0987  -3.72342  18
17.1749  -9.75174  18
23.2959  -1.65477  18
30.9711  10.3066  18
20.8435  -7.58644  18
27.9958  2.24732  18
23.8036  -6.12094  18
22.9413  -9.98687  18
27.9958  -2.24732  18
24.1145  -8.9403  18
25.1144  -10.1533  18
27.3514  -7.9712  18
30.9711  -10.3066  18
112.906  3.99138  18
112.906  -3.99138  18
140.389  3.7651  18
142.609  5.16815  18
145.228  6.63637  18
143.345  4.31634  18
146.072  6.41187  18
143.136  2.20653  18
140.389  -3.7651  18
145.651  2.62224  18
144.602  0.698782  18
143.136  -2.20653  18
144.602  -0.698782  18
142.609  -5.16815  18
143.345  -4.31634  18
152.169  4.51252  18
145.651  -2.62224  18
152.819  4.27654  18
154.057  3.44767  18
145.228  -6.63637  18
154.626  3.2397  18
152.496  1.7661  18
146.072  -6.41187  18
154.199  2.27602  18
152.654  0.445864  18
153.283  0.421779  18
154.344  1.13755  18
152.654  -0.445864  18
153.283  -0.421779  18
152.496  -1.7661  18
154.344  -1.13755  18
152.169  -4.51252  18
154.199  -2.27602  18
152.819  -4.27654  18
154.057  -3.44767  18
154.626  -3.2397  18
22.3428  6.86929  18
22.8608  7.46348  18
22.5429  4.67391  18
25.0369  7.58878  18
22.2839  2.46133  18
21.465  1.07171  18
21.465  -1.07171  18
25.3599  4.77576  18
25.1135  2.51624  18
24.2902  0.833774  18
22.2839  -2.46133  18
24.2902  -0.833774  18
22.5429  -4.67391  18
25.1135  -2.51624  18
22.3428  -6.86929  18
22.8608  -7.46348  18
25.3599  -4.77576  18
25.0369  -7.58878  18
115.086  7.87475  18
115.086  -7.87475  18
145.181  5.99633  18
146.959  6.77165  18
144.969  4.04091  18
144.498  3.44361  18
146.75  4.97443  18
144.76  2.05237  18
146.33  1.27424  18
147.127  1.22948  18
144.76  -2.05237  18
150.943  3.94535  18
144.498  -3.44361  18
146.33  -1.27424  18
151.632  3.75693  18
144.969  -4.04091  18
147.127  -1.22948  18
152.855  3.84471  18
145.181  -5.99633  18
153.015  2.53407  18
151.289  0.968479  18
146.75  -4.97443  18
151.966  0.92121  18
153.366  2.05481  18
153.169  1.25926  18
151.289  -0.968479  18
146.959  -6.77165  18
151.966  -0.92121  18
153.169  -1.25926  18
150.943  -3.94535  18
151.632  -3.75693  18
153.366  -2.05481  18
153.015  -2.53407  18
152.855  -3.84471  18
21.1708  5.55777  18
23.8428  3.60808  18
26.3644  6.36549  18
21.1708  -5.55777  18
23.8428  -3.60808  18
26.3644  -6.36549  18
143.817  2.84255  18
147.296  6.05664  18
145.862  4.53416  18
148.045  5.83901  18
146.201  3.82906  18
145.468  0.998329  18
148.886  4.4738  18
146.391  1.9063  18
150.137  5.19161  18
143.817  -2.84255  18
145.468  -0.998329  18
149.07  2.7711  18
151.562  4.25112  18
147.858  0.59353  18
149.778  2.12532  18
146.391  -1.9063  18
152.251  3.81274  18
147.858  -0.59353  18
150.492  2.03276  18
151.73  2.8027  18
152.333  3.12174  18
146.201  -3.82906  18
145.862  -4.53416  18
150.668  0.505311  18
151.899  1.3889  18
150.668  -0.505311  18
149.07  -2.7711  18
149.778  -2.12532  18
147.296  -6.05664  18
150.492  -2.03276  18
148.886  -4.4738  18
148.045  -5.83901  18
151.899  -1.3889  18
151.73  -2.8027  18
150.137  -5.19161  18
152.333  -3.12174  18
151.562  -4.25112  18
152.251  -3.81274  18
147.4  5.42698  18
148.684  6.20971  18
147.919  3.82555  18
147.649  3.28428  18
149.516  4.85359  18
148.106  2.04483  18
150.017  3.40536  18
148.467  1.71928  18
150.365  3.07415  18
148.826  1.40432  18
149.183  1.10012  18
151.117  2.43937  18
152.935  3.18497  18
148.106  -2.04483  18
148.467  -1.71928  18
148.826  -1.40432  18
149.183  -1.10012  18
147.649  -3.28428  18
147.919  -3.82555  18
147.4  -5.42698  18
150.017  -3.40536  18
150.365  -3.07415  18
151.117  -2.43937  18
149.516  -4.85359  18
148.684  -6.20971  18
152.935  -3.18497  18
908  907  121
371  62  370
371  63  62
908  850  849
576  69  68
908  121  770
576  68  575
909  43  848
909  848  847
909  44  43
910  771  685
910  770  771
910  908  770
577  69  576
910  850  908
910  851  850
910  685  851
372  63  371
578  1  76
578  379  1
578  76  380
578  380  379
579  381  254
579  76  77
912  44  909
579  77  381
580  579  254
913  851  774
913  849  850
580  76  579
913  850  851
580  380  76
580  254  382
581  253  380
914  178  177
581  380  580
581  580  382
915  852  179
582  78  384
582  77  78
915  178  914
582  384  255
916  913  774
583  77  582
916  854  852
583  582  255
916  774  854
583  381  77
583  255  385
917  177  178
584  254  381
584  385  188
584  583  385
918  915  179
584  381  583
918  178  915
918  179  856
918  917  178
585  256  383
585  383  186
585  186  187
586  188  187
586  254  584
586  382  254
586  584  188
586  187  382
587  79  387
587  387  257
587  78  79
588  388  256
920  856  857
920  857  782
588  187  386
588  585  187
588  256  585
921  48  47
589  384  78
589  257  389
922  920  782
922  782  862
589  78  587
922  862  860
589  587  257
590  589  389
922  860  859
590  389  190
923  49  48
590  255  384
923  48  921
590  384  589
924  784  49
924  49  923
591  188  189
924  859  860
591  258  386
925  784  924
591  386  188
925  924  860
592  255  590
925  699  786
592  590  190
925  862  699
592  190  189
925  860  862
592  385  255
925  786  784
592  189  385
593  256  388
926  867  806
593  388  148
593  147  256
594  388  588
927  873  926
927  806  868
594  148  388
927  926  806
594  386  258
927  870  873
594  588  386
927  868  870
595  259  147
928  926  873
595  147  593
595  593  148
595  148  393
595  393  259
596  591  189
929  870  871
596  189  390
929  871  809
596  394  258
929  873  870
596  258  591
597  390  190
930  808  928
597  260  390
379  185  1
379  253  185
930  875  155
597  190  191
598  594  258
598  258  394
931  930  155
598  148  594
380  253  379
598  394  149
931  808  930
931  872  808
931  154  872
599  391  261
932  931  155
932  154  931
932  814  874
599  194  392
599  397  194
932  874  154
599  261  397
600  394  596
600  390  260
382  187  186
933  873  929
600  149  394
383  147  185
383  185  186
600  596  390
383  256  147
601  148  598
934  933  819
601  598  149
601  149  399
601  399  263
602  260  597
934  819  156
602  597  191
602  400  260
385  189  188
935  934  156
602  191  396
935  155  875
603  393  148
936  814  932
603  601  263
936  155  879
603  148  601
386  187  188
936  932  155
603  263  401
937  935  156
604  393  603
937  155  935
937  879  155
604  259  393
604  401  196
604  603  401
938  814  936
605  192  194
605  264  396
389  191  190
605  396  192
606  395  259
606  259  604
606  195  395
939  937  156
606  604  196
390  189  190
606  196  195
607  260  400
939  156  823
607  600  260
391  387  79
607  149  600
607  400  150
940  822  881
391  80  261
940  938  883
391  79  80
392  194  192
608  262  398
392  191  389
392  192  191
941  940  883
608  398  402
941  822  940
609  396  264
392  389  257
941  883  886
609  400  602
941  886  884
609  602  396
941  884  822
609  150  400
942  939  823
610  149  607
610  607  150
943  886  883
610  150  406
943  883  942
610  406  266
943  887  886
611  605  194
943  824  887
611  194  403
611  264  605
395  147  259
944  101  102
944  829  101
395  193  147
944  890  829
611  407  264
395  195  193
944  102  215
944  215  167
944  167  890
396  191  192
945  830  891
945  30  29
612  408  265
945  29  830
945  216  30
613  610  266
945  167  216
613  399  149
945  891  167
946  837  894
613  149  610
946  894  896
397  261  262
613  266  409
398  262  80
398  80  81
614  263  399
947  116  117
614  399  613
614  409  198
947  896  116
614  613  409
615  267  404
615  404  196
948  837  946
615  196  197
616  198  197
616  263  614
949  895  837
616  197  401
616  401  263
616  614  198
949  837  948
949  948  899
617  403  397
401  197  196
402  398  81
618  411  617
618  397  262
618  262  608
618  617  397
403  194  397
619  407  151
619  609  264
951  900  839
619  264  407
619  150  609
951  949  899
620  4  2
404  195  196
620  2  405
620  405  408
23  22  94
405  2  193
620  408  4
405  193  265
621  151  407
23  94  95
952  174  173
621  403  268
621  611  403
953  174  952
621  407  611
622  612  404
622  404  267
954  843  902
24  23  95
622  4  408
24  95  96
622  408  612
623  619  151
623  412  269
623  150  619
408  405  265
623  151  412
624  615  197
25  24  96
624  197  410
624  413  267
25  96  97
624  267  615
409  199  198
410  197  198
956  847  904
956  954  906
626  623  269
626  406  150
957  173  174
626  150  623
626  269  415
627  406  626
627  415  200
627  626  415
627  266  406
959  847  956
628  617  411
959  956  906
628  268  403
628  403  617
960  957  174
629  410  198
629  198  199
415  201  200
629  270  410
961  905  907
630  200  199
961  908  849
630  266  627
630  199  409
416  199  200
961  907  908
630  627  200
630  409  266
962  847  959
631  622  267
962  909  847
631  5  4
962  912  909
631  267  413
631  413  5
417  152  414
631  4  622
963  849  913
632  414  152
632  151  621
632  268  414
632  621  268
633  414  268
633  268  628
633  628  411
633  417  414
634  413  624
634  410  270
634  5  413
634  624  410
635  152  418
421  416  200
635  151  632
421  200  201
966  177  964
421  201  202
966  914  177
635  632  152
635  418  271
421  272  416
967  911  963
636  199  416
422  418  152
967  913  916
636  270  629
967  963  913
636  629  199
636  419  270
968  911  967
968  914  966
637  635  271
968  966  911
637  151  635
968  967  916
968  852  915
968  915  914
637  412  151
968  916  852
637  271  420
638  637  420
638  412  637
424  202  420
424  274  273
638  420  202
638  269  412
639  269  638
639  202  201
639  201  415
639  638  202
970  45  44
639  415  269
970  44  912
640  633  411
640  417  633
971  969  177
971  177  917
426  8  7
426  7  423
972  919  971
641  6  5
426  273  8
972  971  917
641  5  634
972  918  856
641  634  270
972  917  918
641  419  6
641  270  419
427  9  8
972  856  920
427  8  274
642  6  419
642  419  636
642  636  416
33  104  105
642  416  272
428  9  427
643  417  640
429  88  275
643  152  417
429  87  88
644  153  643
33  32  104
644  643  640
975  972  920
975  919  972
975  920  922
645  643  153
431  277  203
645  422  152
645  152  643
431  89  277
976  919  975
431  88  89
976  975  922
646  418  422
976  922  859
646  271  418
432  88  431
432  431  203
432  203  276
432  275  88
977  923  921
647  646  425
977  924  923
647  271  646
977  859  924
647  420  271
978  928  808
648  7  6
978  734  867
648  272  423
978  926  928
648  423  7
978  869  734
648  6  642
978  808  869
648  642  272
978  867  926
649  421  202
979  875  930
434  276  203
979  930  928
649  273  426
434  159  276
979  933  934
979  873  933
649  202  424
435  434  203
979  928  873
649  424  273
435  160  434
979  935  875
435  203  277
979  934  935
650  425  646
435  280  160
980  819  933
435  277  280
980  929  809
436  278  159
980  933  929
650  422  645
436  434  160
980  876  744
980  809  876
650  646  422
436  204  278
980  744  819
651  420  647
436  159  434
981  940  881
651  424  420
437  16  15
981  938  940
981  877  814
437  279  16
981  743  877
981  881  743
651  647  425
981  814  938
982  936  879
652  650  645
438  16  279
982  879  937
438  278  204
982  937  939
652  645  153
982  939  942
982  938  936
439  436  160
982  883  938
439  204  436
982  942  883