 VARIABLES = X Y Z
 ZONE N = 1006, E = 1864, DATAPACKING= POINT, ZONETYPE= FETRIANGLE
0  7.5  18
0  -7.5  18
160  0  18
2.56835  -8.14366  18
5.04659  -8.72517  18
7.49316  -9.25946  18
9.88654  -9.74231  18
12.2328  -10.176  18
14.5388  -10.5628  18
16.8124  -10.905  18
19.0632  -11.2046  18
21.303  -11.464  18
23.5473  -11.6854  18
25.8177  -11.871  18
28.1467  -12.0235  18
30.5893  -12.1463  18
33.2558  -12.2441  18
36.455  -12.3283  18
40.9368  -12.4113  18
45.7737  -12.4623  18
52.0144  -12.4905  18
61.5871  -12.4999  18
77.0738  -12.5  18
89.4696  -12.493  18
95.7631  -12.4687  18
101.11  -12.4247  18
106.457  -12.3482  18
111.063  -12.2478  18
115.225  -12.1234  18
119.113  -11.974  18
122.697  -11.8035  18
125.934  -11.6167  18
128.812  -11.4175  18
130.836  -11.2482  18
132.668  -11.0617  18
134.272  -10.8643  18
135.745  -10.6492  18
137.137  -10.4122  18
138.482  -10.1496  18
139.8  -9.85827  18
141.111  -9.5349  18
142.597  -9.12893  18
144.148  -8.66402  18
145.743  -8.14449  18
147.357  -7.57738  18
148.959  -6.97244  18
150.364  -6.4057  18
151.709  -5.82819  18
152.975  -5.25011  18
154.144  -4.68121  18
155.202  -4.13023  18
156.143  -3.60437  18
156.963  -3.10909  18
157.665  -2.64807  18
158.254  -2.22335  18
158.674  -1.88795  18
158.977  -1.62281  18
159.218  -1.38972  18
159.391  -1.20509  18
159.52  -1.05427  18
159.623  -0.921009  18
159.706  -0.803171  18
159.772  -0.698878  18
159.824  -0.606485  18
159.866  -0.524558  18
159.899  -0.45184  18
159.924  -0.387236  18
159.946  -0.323445  18
159.963  -0.26674  18
159.975  -0.216289  18
159.985  -0.166397  18
159.993  -0.117074  18
159.997  -0.0683269  18
159.999  -0.0340143  18
160  0  18
2.56835  8.14366  18
5.04659  8.72517  18
7.49316  9.25946  18
9.88654  9.74231  18
12.2328  10.176  18
14.5388  10.5628  18
16.8124  10.905  18
19.0632  11.2046  18
21.303  11.464  18
23.5473  11.6854  18
25.8177  11.871  18
28.1467  12.0235  18
30.5893  12.1463  18
33.2558  12.2441  18
36.455  12.3283  18
40.9368  12.4113  18
45.7737  12.4623  18
52.0144  12.4905  18
61.5871  12.4999  18
77.0738  12.5  18
89.4696  12.493  18
95.7631  12.4687  18
101.11  12.4247  18
106.457  12.3482  18
111.063  12.2478  18
115.225  12.1234  18
119.113  11.974  18
122.697  11.8035  18
125.934  11.6167  18
128.812  11.4175  18
130.836  11.2482  18
132.668  11.0617  18
134.272  10.8643  18
135.745  10.6492  18
137.137  10.4122  18
138.482  10.1496  18
139.8  9.85827  18
141.111  9.5349  18
142.597  9.12893  18
144.148  8.66402  18
145.743  8.14449  18
147.357  7.57738  18
148.959  6.97244  18
150.364  6.4057  18
151.709  5.82819  18
152.975  5.25011  18
154.144  4.68121  18
155.202  4.13023  18
156.143  3.60437  18
156.963  3.10909  18
157.665  2.64807  18
158.254  2.22335  18
158.674  1.88795  18
158.977  1.62281  18
159.218  1.38972  18
159.391  1.20509  18
159.52  1.05427  18
159.623  0.921009  18
159.706  0.803171  18
159.772  0.698878  18
159.824  0.606485  18
159.866  0.524558  18
159.899  0.45184  18
159.924  0.387236  18
159.946  0.323445  18
159.963  0.26674  18
159.975  0.216289  18
159.985  0.166397  18
159.993  0.117074  18
159.997  0.0683269  18
159.999  0.0340143  18
1.29565  0  18
3.81852  0  18
6.28101  0  18
8.70085  0  18
11.0705  0  18
13.3966  0  18
15.6863  0  18
17.9486  0  18
20.194  0  18
22.4362  0  18
24.6939  0  18
26.9941  0  18
29.3809  0  18
31.9373  0  18
34.8748  0  18
38.711  0  18
43.3312  0  18
48.8051  0  18
56.7143  0  18
137.808  0  18
139.139  0  18
140.453  0  18
141.851  0  18
143.371  0  18
144.946  0  18
146.553  0  18
148.162  0  18
149.667  0  18
151.043  0  18
152.35  0  18
153.568  0  18
154.683  0  18
155.682  0  18
156.563  0  18
157.324  0  18
157.969  0  18
158.47  0  18
0.65072  3.83346  18
1.93484  3.99435  18
3.19623  4.14737  18
4.43529  4.29272  18
5.66661  4.43219  18
6.88984  4.56573  18
8.09978  4.69281  18
0.65072  -3.83346  18
1.93484  -3.99435  18
3.19623  -4.14737  18
4.43529  -4.29272  18
5.66661  -4.43219  18
6.88984  -4.56573  18
8.09978  -4.69281  18
47.2687  6.23593  18
50.3883  6.24286  18
47.2687  -6.23593  18
54.3355  6.24758  18
50.3883  -6.24286  18
59.1364  6.24971  18
54.3355  -6.24758  18
59.1364  -6.24971  18
135.241  5.36336  18
136.038  5.30111  18
136.774  5.23864  18
135.241  -5.36336  18
136.038  -5.30111  18
136.774  -5.23864  18
158.735  0.918371  18
158.872  0.858594  18
158.978  0.810638  18
159.063  0.771005  18
159.136  0.735599  18
159.2  0.703953  18
159.255  0.675652  18
159.303  0.650332  18
159.345  0.627667  18
159.382  0.607369  18
159.415  0.589185  18
159.446  0.571081  18
159.474  0.554856  18
159.498  0.54031  18
159.522  0.525818  18
159.545  0.511381  18
159.568  0.496999  18
159.583  0.486805  18
158.735  -0.918371  18
158.872  -0.858594  18
158.978  -0.810638  18
159.063  -0.771005  18
159.136  -0.735599  18
159.2  -0.703953  18
159.255  -0.675652  18
159.303  -0.650332  18
159.345  -0.627667  18
159.382  -0.607369  18
159.415  -0.589185  18
159.446  -0.571081  18
159.474  -0.554856  18
159.498  -0.54031  18
159.522  -0.525818  18
159.545  -0.511381  18
159.568  -0.496999  18
159.583  -0.486805  18
0.973906  5.81165  18
3.50807  6.27662  18
5.97451  6.69942  18
2.2523  2.01667  18
8.99931  7.176  18
4.74879  2.16435  18
10.1997  7.35187  18
7.19662  2.29922  18
2.2523  -2.01667  18
4.74879  -2.16435  18
9.6023  2.42177  18
10.8035  2.47914  18
0.973906  -5.81165  18
7.19662  -2.29922  18
3.50807  -6.27662  18
9.6023  -2.42177  18
5.97451  -6.69942  18
10.8035  -2.47914  18
8.99931  -7.176  18
10.1997  -7.35187  18
48.0312  9.35695  18
45.2738  3.11462  18
45.2738  -3.11462  18
51.5141  3.12229  18
55.5186  9.37257  18
48.0312  -9.35695  18
51.5141  -3.12229  18
55.5186  -9.37257  18
133.057  8.26278  18
137.626  7.74055  18
138.278  7.64371  18
133.057  -2.75426  18
136.522  2.63029  18
136.921  2.61281  18
137.951  2.56431  18
133.057  -8.26278  18
136.522  -2.63029  18
136.921  -2.61281  18
137.951  -2.56431  18
137.626  -7.74055  18
138.278  -7.64371  18
157.932  1.84569  18
158.236  1.67764  18
158.086  0.587123  18
158.372  0.533089  18
159.684  0.626133  18
158.678  0.471182  18
159.716  0.590607  18
158.736  0.45899  18
159.744  0.558851  18
158.783  0.448869  18
158.825  0.439789  18
159.767  0.53045  18
158.862  0.431643  18
159.787  0.505035  18
158.895  0.424331  18
159.806  0.47976  18
158.924  0.417767  18
158.95  0.411873  18
159.823  0.457134  18
158.973  0.406579  18
159.837  0.436869  18
158.993  0.401824  18
159.014  0.397077  18
159.851  0.416698  18
159.032  0.392813  18
159.048  0.388981  18
159.864  0.396623  18
159.064  0.385155  18
159.08  0.381334  18
159.877  0.376644  18
159.096  0.37752  18
159.885  0.362494  18
159.107  0.37481  18
159.893  0.348394  18
158.086  -0.587123  18
158.372  -0.533089  18
158.678  -0.471182  18
158.736  -0.45899  18
158.783  -0.448869  18
158.825  -0.439789  18
158.862  -0.431643  18
158.895  -0.424331  18
158.924  -0.417767  18
158.95  -0.411873  18
158.973  -0.406579  18
158.993  -0.401824  18
159.014  -0.397077  18
159.032  -0.392813  18
159.048  -0.388981  18
159.064  -0.385155  18
159.08  -0.381334  18
159.096  -0.37752  18
159.107  -0.37481  18
159.893  0.116131  18
157.932  -1.84569  18
158.236  -1.67764  18
159.684  -0.626133  18
159.716  -0.590607  18
159.744  -0.558851  18
159.767  -0.53045  18
159.787  -0.505035  18
159.806  -0.47976  18
159.823  -0.457134  18
159.837  -0.436869  18
159.851  -0.416698  18
159.864  -0.396623  18
159.877  -0.376644  18
159.885  -0.362494  18
159.893  -0.348394  18
1.77558  6.95568  18
4.28162  7.48118  18
2.72585  5.11362  18
1.45598  2.95121  18
6.73815  7.96154  18
5.20924  5.47621  18
8.25057  8.23952  18
3.97686  3.17964  18
7.04563  5.72797  18
3.03978  1.03217  18
6.43598  3.38758  18
11.2244  8.7452  18
9.15825  5.99978  18
12.4071  8.9308  18
5.51922  1.10394  18
3.03978  -1.03217  18
8.85538  3.5772  18
1.45598  -2.95121  18
9.46579  3.62263  18
7.95304  1.16942  18
5.51922  -1.10394  18
12.6992  6.41091  18
3.97686  -3.17964  18
2.72585  -5.11362  18
7.95304  -1.16942  18
10.3407  1.22867  18
6.43598  -3.38758  18
1.77558  -6.95568  18
12.1135  1.26937  18
5.20924  -5.47621  18
10.3407  -1.22867  18
13.2933  1.29485  18
8.85538  -3.5772  18
4.28162  -7.48118  18
7.04563  -5.72797  18
9.46579  -3.62263  18
12.1135  -1.26937  18
13.2933  -1.29485  18
6.73815  -7.96154  18
9.15825  -5.99978  18
8.25057  -8.23952  18
12.6992  -6.41091  18
11.2244  -8.7452  18
12.4071  -8.9308  18
43.0876  7.77391  18
49.9883  10.9238  18
47.0122  1.5588  18
43.0876  -7.77391  18
47.0122  -1.5588  18
53.7492  10.9324  18
50.1439  1.56061  18
50.1439  -1.56061  18
58.5277  10.9368  18
54.0776  1.56184  18
54.0776  -1.56184  18
49.9883  -10.9238  18
53.7492  -10.9324  18
58.5277  -10.9368  18
130.964  9.83172  18
129.598  4.25833  18
136.83  6.54212  18
129.598  -7.09722  18
134.152  1.36005  18
137.524  6.46254  18
139.036  8.77735  18
139.682  8.65004  18
134.793  0  18
134.152  -4.08014  18
139.359  3.73487  18
139.194  1.24957  18
139.194  -1.24957  18
136.83  -6.54212  18
137.524  -6.46254  18
139.359  -3.73487  18
139.036  -8.77735  18
139.682  -8.65004  18
157.095  2.64769  18
157.467  2.43466  18
158.462  1.80362  18
158.629  1.6853  18
157.283  1.08895  18
158.355  1.34086  18
157.371  0.355779  18
158.425  0.783833  18
157.719  0.326381  18
157.371  -0.355779  18
159.491  0.680509  18
159.511  0.665149  18
159.529  0.651368  18
159.545  0.638998  18
159.559  0.627893  18
159.573  0.616815  18
159.585  0.606867  18
159.596  0.597932  18
157.719  -0.326381  18
159.668  0.536511  18
159.933  0.319071  18
159.681  0.524454  18
159.693  0.513632  18
159.268  0.501517  18
159.941  0.296481  18
158.69  0.234331  18
159.705  0.502837  18
159.286  0.494593  18
158.706  0.232663  18
159.95  0.274009  18
158.72  0.231164  18
159.715  0.493146  18
159.302  0.488374  18
158.733  0.229816  18
159.724  0.484444  18
159.316  0.482786  18
158.744  0.228604  18
158.755  0.227393  18
159.957  0.251656  18
159.733  0.47576  18
159.33  0.477209  18
158.766  0.226304  18
158.775  0.225324  18
159.742  0.467095  18
159.343  0.47164  18
158.784  0.224345  18
159.964  0.229424  18
158.793  0.223367  18
159.751  0.458448  18
159.357  0.466082  18
158.802  0.222389  18
159.757  0.452311  18
159.366  0.462134  18
158.808  0.221695  18
159.969  0.213686  18
157.283  -1.08895  18
159.973  0.19801  18
158.69  -0.234331  18
158.706  -0.232663  18
158.72  -0.231164  18
158.733  -0.229816  18
158.744  -0.228604  18
158.755  -0.227393  18
158.766  -0.226304  18
158.775  -0.225324  18
158.784  -0.224345  18
158.793  -0.223367  18
158.802  -0.222389  18
158.808  -0.221695  18
159.591  0.240859  18
159.973  0.141436  18
158.425  -0.783833  18
157.095  -2.64769  18
159.591  0  18
157.467  -2.43466  18
158.355  -1.34086  18
159.268  -0.501517  18
159.286  -0.494593  18
159.302  -0.488374  18
159.316  -0.482786  18
159.33  -0.477209  18
159.343  -0.47164  18
159.357  -0.466082  18
159.366  -0.462134  18
159.763  -0.0892365  18
158.462  -1.80362  18
158.629  -1.6853  18
159.491  -0.680509  18
159.511  -0.665149  18
159.529  -0.651368  18
159.545  -0.638998  18
159.559  -0.627893  18
159.573  -0.616815  18
159.585  -0.606867  18
159.596  -0.597932  18
159.668  -0.536511  18
159.681  -0.524454  18
159.693  -0.513632  18
159.705  -0.502837  18
159.715  -0.493146  18
159.724  -0.484444  18
159.733  -0.47576  18
159.742  -0.467095  18
159.751  -0.458448  18
159.757  -0.452311  18
159.763  -0.446183  18
159.973  -0.0848614  18
159.933  -0.319071  18
159.941  -0.296481  18
159.95  -0.274009  18
159.957  -0.251656  18
159.964  -0.229424  18
159.969  -0.213686  18
159.973  -0.19801  18
0.893245  7.24545  18
3.43024  7.8285  18
2.64714  6.63224  18
1.85526  5.47873  18
5.89766  8.35838  18
5.13331  7.10515  18
4.3639  5.89116  18
3.58581  4.7178  18
2.33145  3.53763  18
3.11988  2.58641  18
4.82694  3.79542  18
8.02974  6.44269  18
10.559  9.25377  18
2.17307  0.502954  18
3.89955  1.58643  18
5.59763  2.76532  18
2.17307  -0.502954  18
7.2731  4.03072  18
4.67414  0.540021  18
6.36316  1.69082  18
13.4822  9.74111  18
11.9662  7.59656  18
11.4619  6.90107  18
8.03124  2.92859  18
4.67414  -0.540021  18
3.89955  -1.58643  18
13.6259  8.46174  18
3.11988  -2.58641  18
11.1032  4.9861  18
7.12228  0.573817  18
2.33145  -3.53763  18
8.7829  1.78587  18
14.7907  8.61468  18
11.7585  4.41506  18
7.12228  -0.573817  18
6.36316  -1.69082  18
5.59763  -2.76532  18
1.85526  -5.47873  18
9.52597  0.604509  18
4.82694  -3.79542  18
3.58581  -4.7178  18
9.52597  -0.604509  18
0.893245  -7.24545  18
12.0608  1.9023  18
8.7829  -1.78587  18
2.64714  -6.63224  18
8.03124  -2.92859  18
4.3639  -5.89116  18
7.2731  -4.03072  18
14.2111  3.28447  18
3.43024  -7.8285  18
15.3811  3.34193  18
5.13331  -7.10515  18
12.0608  -1.9023  18
14.5016  0.659807  18
8.02974  -6.44269  18
5.89766  -8.35838  18
14.5016  -0.659807  18
11.1032  -4.9861  18
11.7585  -4.41506  18
14.2111  -3.28447  18
11.4619  -6.90107  18
15.3811  -3.34193  18
11.9662  -7.59656  18
10.559  -9.25377  18
13.6259  -8.46174  18
13.4822  -9.74111  18
14.7907  -8.61468  18
47.8396  11.6953  18
48.6863  3.8997  18
52.0493  8.58727  18
48.6863  -3.8997  18
47.8396  -11.6953  18
52.0493  -8.58727  18
126.25  7.97262  18
127.798  7.90076  18
131.346  6.29996  18
126.25  -3.62392  18
127.798  -3.59125  18
127.798  -9.33726  18
135.337  2.00855  18
138.978  8.16079  18
140.393  9.10894  18
131.346  -7.69995  18
138.438  5.07936  18
140.23  6.70731  18
140.962  6.58166  18
140.595  1.81242  18
138.438  -5.07936  18
140.595  -1.81242  18
138.978  -8.16079  18
140.23  -6.70731  18
140.962  -6.58166  18
140.393  -9.10894  18
156.301  2.4144  18
156.733  2.23575  18
158.205  1.83606  18
157.617  1.50813  18
158.942  1.55113  18
156.52  0.634062  18
157.848  1.26026  18
156.932  0.586658  18
156.978  0.193733  18
156.978  -0.193733  18
156.52  -0.634062  18
156.932  -0.586658  18
159.292  0.738294  18
159.325  0.718824  18
156.301  -2.4144  18
159.891  0.293262  18
159.993  0.0906813  18
156.733  -2.23575  18
159.371  0.153387  18
159.247  0.0849681  18
157.617  -1.50813  18
157.848  -1.26026  18
159.247  -0.0849681  18
159.94  0.150486  18
159.371  -0.153387  18
159.766  0.0886244  18
159.993  0.0348774  18
158.205  -1.83606  18
159.292  -0.738294  18
159.325  -0.718824  18
159.893  -0.116131  18
158.942  -1.55113  18
159.834  -0.257191  18
159.993  -0.0767304  18
7.38709  7.21652  18
7.01005  6.58172  18
9.78389  8.2033  18
10.1381  5.50728  18
13.7539  7.50061  18
15.8101  9.75035  18
13.4598  4.8688  18
12.997  3.86572  18
14.0549  4.91483  18
16.101  7.08892  18
13.1453  2.58346  18
17.2508  7.19671  18
7.01005  -6.58172  18
7.38709  -7.21652  18
10.1381  -5.50728  18
13.1453  -2.58346  18
16.6787  1.70093  18
12.997  -3.86572  18
17.8368  1.72597  18
9.78389  -8.2033  18
13.4598  -4.8688  18
16.6787  -1.70093  18
14.0549  -4.91483  18
17.8368  -1.72597  18
13.7539  -7.50061  18
16.101  -7.08892  18
17.2508  -7.19671  18
15.8101  -9.75035  18
122.758  4.05634  18
122.758  -7.74393  18
139.329  5.91748  18
141.776  7.89587  18
140.156  5.19236  18
142.547  7.7146  18
142.161  3.18042  18
141.221  0.891211  18
141.975  0.872225  18
141.221  -0.891211  18
141.975  -0.872225  18
139.329  -5.91748  18
140.156  -5.19236  18
142.161  -3.18042  18
141.776  -7.89587  18
142.547  -7.7146  18
155.269  3.45458  18
155.765  3.22321  18
156.708  2.55304  18
157.11  2.35632  18
155.52  1.36024  18
156.808  1.7033  18
155.638  0.364804  18
156.11  0.339697  18
158.001  1.43157  18
156.911  0.883601  18
155.638  -0.364804  18
156.11  -0.339697  18
155.52  -1.36024  18
156.911  -0.883601  18
155.269  -3.45458  18
156.808  -1.7033  18
159.958  0.222474  18
155.765  -3.22321  18
159.8  0.304945  18
156.708  -2.55304  18
157.11  -2.35632  18
158.001  -1.43157  18
159.958  0.0800905  18
159.958  0.00889895  18
159.636  -0.366726  18
159.94  -0.193483  18
159.958  -0.204676  18
14.9389  7.3053  18
16.5348  8.48854  18
15.0866  5.98999  18
18.164  9.18359  18
16.3233  5.24806  18
19.3123  9.30432  18
16.6216  2.54948  18
15.6  1.17331  18
18.741  3.66323  18
15.6  -1.17331  18
19.0273  0.875014  18
16.6216  -2.54948  18
19.0273  -0.875014  18
15.0866  -5.98999  18
16.3233  -5.24806  18
14.9389  -7.3053  18
18.741  -3.66323  18
16.5348  -8.48854  18
18.164  -9.18359  18
19.3123  -9.30432  18
141.751  7.16994  18
143.346  8.21333  18
141.559  4.8554  18
141.152  4.16678  18
143.152  6.02476  18
141.374  2.51436  18
143.95  5.8625  18
142.765  1.5607  18
143.551  1.5207  18
141.374  -2.51436  18
142.765  -1.5607  18
141.152  -4.16678  18
143.551  -1.5207  18
141.559  -4.8554  18
141.751  -7.16994  18
143.152  -6.02476  18
143.95  -5.8625  18
143.346  -8.21333  18
154.161  4.30732  18
154.298  3.09291  18
155.918  1.9253  18
154.576  0.766731  18
156.185  1.56617  18
155.108  0.718611  18
156.032  0.974415  18
154.576  -0.766731  18
155.108  -0.718611  18
156.032  -0.974415  18
154.298  -3.09291  18
156.185  -1.56617  18
155.918  -1.9253  18
154.161  -4.30732  18
159.705  0.289349  18
159.512  -0.282413  18
18.2906  8.24288  18
20.3162  10.3787  18
18.0006  5.44756  18
17.5445  4.47149  18
20.0362  7.51857  18
21.1945  7.60508  18
20.6183  1.86848  18
17.5445  -4.47149  18
18.0006  -5.44756  18
20.6183  -1.86848  18
18.2906  -8.24288  18
20.0362  -7.51857  18
21.1945  -7.60508  18
20.3162  -10.3787  18
140.25  3.96138  18
142.353  5.46134  18
144.847  7.0564  18
143.053  4.5684  18
145.66  6.83164  18
142.854  2.33435  18
140.25  -3.96138  18
145.254  2.791  18
144.248  0.741852  18
142.854  -2.33435  18
144.248  -0.741852  18
142.353  -5.46134  18
143.053  -4.5684  18
145.254  -2.791  18
153.042  4.36225  18
153.648  4.11876  18
154.691  4.22916  18
144.847  -7.0564  18
145.66  -6.83164  18
154.791  3.29545  18
153.348  1.70417  18
155.133  2.47451  18
154.922  2.17333  18
153.495  0.42984  18
154.079  0.405069  18
155.056  1.08505  18
153.495  -0.42984  18
154.079  -0.405069  18
153.348  -1.70417  18
155.056  -1.08505  18
153.042  -4.36225  18
154.922  -2.17333  18
153.648  -4.11876  18
155.133  -2.47451  18
154.791  -3.29545  18
154.691  -4.22916  18
19.0273  6.4751  18
22.383  9.63102  18
19.9808  5.61359  18
23.5531  9.72301  18
19.6872  2.77614  18
22.9711  3.86224  18
21.5344  0.942426  18
19.6872  -2.77614  18
21.5344  -0.942426  18
19.0273  -6.4751  18
19.9808  -5.61359  18
22.9711  -3.86224  18
22.383  -9.63102  18
23.5531  -9.72301  18
144.806  6.37407  18
146.511  7.23328  18
144.602  4.29339  18
144.153  3.65438  18
146.309  5.31049  18
144.402  2.17948  18
147.124  5.1177  18
145.904  1.3588  18
146.718  1.31133  18
144.402  -2.17948  18
151.734  5.33997  18
144.153  -3.65438  18
145.904  -1.3588  18
144.602  -4.29339  18
146.718  -1.31133  18
151.896  3.83768  18
144.806  -6.37407  18
153.681  3.70259  18
146.309  -5.31049  18
147.124  -5.1177  18
153.829  2.43803  18
152.221  0.940434  18
155.453  2.87041  18
146.511  -7.23328  18
152.854  0.891393  18
154.153  1.97285  18
155.732  2.45916  18
153.972  1.21039  18
152.221  -0.940434  18
152.854  -0.891393  18
153.972  -1.21039  18
151.896  -3.83768  18
154.153  -1.97285  18
153.829  -2.43803  18
151.734  -5.33997  18
153.681  -3.70259  18
155.732  -2.45916  18
155.453  -2.87041  18
21.359  10.0139  18
22.386  8.6591  18
22.0897  5.75043  18
21.4955  4.75531  18
24.4123  7.83269  18
21.8068  2.85677  18
23.839  1.94426  18
21.8068  -2.85677  18
25.0183  1.96063  18
21.4955  -4.75531  18
23.839  -1.94426  18
22.0897  -5.75043  18
25.0183  -1.96063  18
21.359  -10.0139  18
22.386  -8.6591  18
24.4123  -7.83269  18
143.503  3.01172  18
145.457  4.82845  18
145.782  4.08144  18
148.048  6.10618  18
146.192  4.01101  18
145.077  1.06212  18
145.987  2.03106  18
150.456  5.3102  18
149.572  4.49503  18
143.503  -3.01172  18
147.645  2.49539  18
145.077  -1.06212  18
151.139  5.06851  18
148.408  2.39969  18
152.363  5.3075  18
147.443  0.633731  18
145.987  -2.03106  18
147.443  -0.633731  18
152.476  4.12262  18
152.806  3.78908  18
145.782  -4.08144  18
150.799  2.07831  18
145.457  -4.82845  18
146.192  -4.01101  18
152.883  3.1016  18
147.645  -2.49539  18
152.633  2.71563  18
148.408  -2.39969  18
150.968  0.516568  18
151.638  0.492123  18
152.791  1.34453  18
150.968  -0.516568  18
151.638  -0.492123  18
150.799  -2.07831  18
148.048  -6.10618  18
149.572  -4.49503  18
152.791  -1.34453  18
150.456  -5.3102  18
152.633  -2.71563  18
151.139  -5.06851  18
152.883  -3.1016  18
152.476  -4.12262  18
152.806  -3.78908  18
152.363  -5.3075  18
20.5984  3.75847  18
23.2629  6.78614  18
26.3102  9.91807  18
24.0039  2.91998  18
20.5984  -3.75847  18
25.7179  3.95067  18
26.0148  0.986576  18
24.0039  -2.91998  18
26.0148  -0.986576  18
23.2629  -6.78614  18
25.7179  -3.95067  18
26.3102  -9.91807  18
148.505  6.55481  18
149.713  6.11847  18
148.815  5.27823  18
146.921  3.23279  18
147.769  3.7201  18
146.819  2.27661  18
148.993  3.48624  18
151.184  4.54941  18
150.19  3.24514  18
149.041  1.15894  18
151.352  2.99834  18
146.819  -2.27661  18
150.237  1.07849  18
151.731  2.4321  18
146.921  -3.23279  18
153.286  3.41828  18
149.041  -1.15894  18
151.518  1.48386  18
151.813  1.69405  18
147.769  -3.7201  18
150.237  -1.07849  18
148.993  -3.48624  18
151.518  -1.48386  18
150.19  -3.24514  18
148.815  -5.27823  18
151.813  -1.69405  18
148.505  -6.55481  18
151.731  -2.4321  18
151.352  -2.99834  18
149.713  -6.11847  18
151.184  -4.54941  18
153.286  -3.41828  18
530  345  529
836  786  834
837  786  836
837  787  724
837  836  787
530  529  247
838  177  176
531  530  247
839  177  838
839  788  178
840  791  790
345  60  59
840  724  791
345  61  60
345  62  61
840  837  724
840  790  788
531  345  530
532  346  345
841  176  177
842  178  792
842  177  839
532  345  531
842  839  178
842  841  177
532  531  247
844  794  732
533  346  532
844  792  793
844  793  794
346  62  345
347  62  346
533  532  247
347  63  62
846  732  797
534  346  533
846  844  732
534  533  247
847  798  50
847  50  49
847  49  845
848  795  846
848  846  797
849  795  848
535  346  534
535  534  247
850  849  734
850  50  798
850  798  849
850  734  51
850  51  50
535  347  346
851  687  801
851  801  805
348  63  347
851  755  803
851  803  687
536  535  247
852  84  85
536  347  535
853  851  805
853  755  851
853  805  806
349  63  348
854  852  85
350  64  63
854  85  86
537  347  536
855  694  755
855  807  757
855  757  694
350  63  349
857  155  807
538  347  537
858  763  699
858  699  759
538  348  347
858  759  810
539  355  354
539  354  353
859  857  156
859  810  155
351  64  350
539  349  348
859  155  857
539  348  538
860  702  809
539  350  349
860  811  702
860  809  763
539  351  350
860  812  811
539  353  352
539  352  351
861  860  763
861  812  860
861  813  812
541  354  355
541  353  354
541  355  356
541  356  357
541  65  64
541  66  65
863  13  12
541  67  66
541  68  67
864  14  13
864  13  863
541  352  353
541  64  351
865  773  817
541  351  352
865  817  819
542  541  357
866  116  117
866  819  116
867  818  773
542  68  541
867  773  865
868  818  867
868  867  822
543  68  542
544  68  543
869  819  866
544  69  68
870  868  822
870  823  775
871  869  866
545  69  544
546  69  545
872  172  171
546  70  69
873  172  872
547  70  546
547  71  70
547  72  71
874  779  825
547  73  72
547  74  73
360  186  185
547  3  74
548  76  358
548  358  248
361  184  185
548  1  76
548  248  1
361  147  184
549  358  76
361  251  147
549  77  359
549  76  77
876  874  828
550  248  358
550  359  249
550  549  359
363  188  187
550  358  549
551  184  248
551  185  184
877  171  172
551  249  360
551  248  550
551  550  249
878  783  827
551  360  185
364  362  78
552  359  77
364  78  79
878  827  876
878  876  828
552  78  362
552  77  78
365  186  187
553  249  359
879  877  172
553  362  250
553  359  552
23  22  94
366  188  363
366  363  250
553  552  362
23  94  95
366  190  189
554  360  249
366  189  188
554  250  363
554  249  553
554  553  250
555  554  363
555  186  360
555  363  187
555  187  186
881  833  832
555  360  554
881  783  878
368  188  189
24  23  95
881  832  783
24  95  96
556  186  365
882  829  830
556  185  186
882  785  834
556  361  185
557  556  365
557  361  556
882  830  785
557  251  361
882  834  786
370  252  254
25  24  96
557  365  253
558  365  187
25  96  97
558  188  368
558  187  188
371  369  80
559  252  370
559  190  366
559  370  190
26  25  97
560  80  369
26  97  98
560  79  80
561  367  148
561  251  367
885  786  837
561  147  251
27  26  98
375  147  256
562  251  557
562  557  253
27  98  99
375  191  147
562  367  251
375  192  191
562  253  372
563  558  368
887  834  720
376  374  190
563  368  255
887  836  834
376  259  258
887  721  642
563  365  558
887  720  721
376  258  374
563  253  365
888  44  833
564  256  147
888  45  44
564  147  561
564  373  256
888  833  883
28  27  99
564  561  148
888  883  884
564  148  373
28  99  100
565  190  374
889  838  176
565  368  189
889  176  886
565  189  190
890  835  885
566  367  562
566  148  367
890  885  837
566  372  149
890  837  840
891  642  787
891  887  642
566  562  372
891  836  887
567  253  563
891  787  836
892  839  838
567  372  253
892  840  788
567  255  377
892  889  835
29  28  100
892  835  890
567  563  255
892  838  889
29  100  101
892  788  839
568  371  80
892  890  840
380  194  193
568  80  81
381  192  193
569  369  371
570  369  569
570  569  379
570  254  369
894  176  841
894  893  176
571  255  368
895  894  841
571  368  565
895  843  894
571  565  374
895  841  842
383  258  259
571  374  258
895  792  844
895  842  792
384  196  195
572  566  149
572  373  148
572  149  378
572  148  566
573  378  257
573  256  373
573  373  572
573  572  378
897  895  844
574  371  568
897  843  895
897  844  846
386  151  383
574  569  371
898  897  846
387  194  195
898  846  795
898  843  897
575  375  256
575  257  380
388  265  263
575  573  257
575  256  573
389  152  386
576  570  379
900  847  845
900  849  798
576  259  376
900  798  847
900  795  849
577  377  150
577  372  567
901  797  656
577  567  377
901  848  797
577  149  372
578  193  192
578  375  575
902  734  849
578  575  380
902  901  656
578  192  375
902  848  901
392  195  196
578  380  193
902  656  737
392  264  387
902  737  734
392  387  195
902  849  848
392  196  197
579  571  258
903  805  802
579  255  571
579  377  255
903  802  84
393  197  390
579  258  383
903  84  852
393  390  263
903  806  805
393  263  265
904  903  852
580  568  81
904  806  903
580  574  568
904  852  854
394  388  151
905  806  904
394  386  152
394  151  386
581  576  379
395  394  152
581  259  576
906  806  905
582  150  382
906  905  856
906  853  806
582  149  577
582  577  150
582  378  149
583  257  378
583  582  382
583  378  582
583  382  261
584  261  384
584  257  583
584  380  257
397  267  266
908  906  856
584  583  261
398  7  6
908  156  857
908  857  807
398  6  396
909  157  156
585  260  191
585  381  262
909  908  856
585  192  381
909  156  908
585  191  192
910  810  859
586  150  377
586  579  383
910  859  156
586  377  579
586  383  151
587  195  194
587  194  380
587  380  584
911  157  909
587  584  384
587  384  195
588  194  387
401  8  400
588  381  193
402  163  162
588  193  194
402  198  269
402  92  198
912  813  861
402  269  163
912  910  862
589  151  388
402  162  91
913  910  156
589  586  151
402  91  92
589  382  150
403  199  268
913  156  157
589  150  586
590  4  2
590  385  4
913  862  910
590  2  260
404  269  198
590  260  385
591  389  386
914  912  862
591  259  581
405  162  163
914  813  912
591  383  259
405  20  19
591  386  383
405  200  20
592  382  589
405  270  200
592  388  263
405  163  270
405  19  162
592  589  388
915  913  157
406  269  404
592  261  382
406  404  164
593  262  391
406  200  270
916  863  12
406  270  269
916  12  814
916  812  813
593  260  585
916  814  812
593  585  262
407  272  201
917  916  813
593  385  260
917  813  914
594  384  261
917  864  863
594  592  263
917  863  916
594  261  592
408  199  271
594  263  390
409  164  408
595  387  264
409  408  271
595  262  381
409  271  274
595  588  387
409  274  202
919  818  868
595  381  588
410  407  93
919  868  870
596  384  594
410  94  203
919  870  775
596  390  197
410  203  272
919  710  818
596  196  384
410  272  407
919  820  710
596  594  390
410  93  94
919  775  820
596  197  196
920  865  819
411  201  165
920  867  865
411  271  201
920  819  869
412  165  204
921  822  867
412  204  274
412  411  165
598  5  4
412  274  271
921  867  920
598  385  593
412  271  411
598  391  5
598  4  385
922  871  866
598  593  391
413  273  202
922  866  117
414  204  275
415  22  21
415  21  414
923  822  921
415  205  22
923  920  869
600  262  595
415  275  205
923  921  920
600  391  262
415  414  275
923  869  871
416  105  106
924  823  870
600  264  396
416  106  107
600  595  264
924  171  823
924  872  171
601  265  388
416  107  276
924  870  822
601  394  395
925  873  872
601  388  394
925  822  923
925  924  822
602  152  389
925  872  924
602  389  597
418  109  110
603  392  197
418  206  109
418  207  206
603  397  266
418  110  277
418  208  207
603  197  397
604  6  5
419  34  33
604  5  391
604  600  396
604  391  600
604  396  6
605  152  602
420  276  206
928  827  717
928  779  874
420  279  417
928  876  827
605  395  152
928  874  876
605  602  153
928  717  824
606  393  265
928  824  779
421  277  278
421  418  277
421  208  418
607  265  601
422  111  112
930  874  825
607  606  265
930  828  874
607  399  606
422  278  111
930  825  171
930  171  877
931  119  120
423  422  112
608  395  605
931  120  875
931  926  119
609  400  267
424  279  420
425  424  284
425  209  283
609  606  399
425  283  279
933  120  121
425  284  209
425  279  424
933  121  829
933  875  120
934  929  932
934  172  873